 -3.1493362e-02   7.6083899e-03
  1.1410581e-01   1.0145928e-02
  7.7915691e-02   2.8614527e-02
  2.6811665e-02   3.8563319e-02
  4.3902420e-02   5.6311032e-03
 -9.0199903e-02   1.2951310e-02
  1.8583821e-01   1.2839385e-02
  1.0098957e-01   1.3458897e-02
 -7.5968928e-03   1.9051101e-02
  8.1910260e-02   1.4468110e-02
  9.2416704e-02   1.2469837e-02
  7.7955365e-02   3.4706563e-02
 -3.2158859e-02   3.0797435e-02
  3.8920667e-02   1.6763071e-02
 -1.0822646e-01   5.0886590e-03
  1.4337241e-02   1.0423542e-02
 -7.8576937e-02   1.3056238e-02
  2.6179085e-02   2.0873114e-02
  2.0051999e-02   9.5198937e-03
  6.9515288e-02   2.2455079e-02
  4.0918745e-02   2.3092061e-02
 -2.0194054e-02   3.6211416e-02
  4.8132734e-03   1.0890876e-02
 -1.5027209e-02   2.2588773e-02
  2.2404190e-02   3.0776711e-02
 -1.0267545e-01   5.2409850e-02
 -6.7127280e-02   7.2908076e-03
  9.3832552e-02   1.8658781e-02
  3.3457510e-02   3.1979077e-02
 -5.5723466e-02   1.2207881e-02
 -8.6402632e-02   2.1444727e-02
 -5.4103560e-03   2.2967918e-02
  2.2224139e-01   1.1496990e-02
 -2.1370332e-01   5.6957565e-03
 -3.0155536e-02   8.8069076e-03
  3.3411726e-02   1.3499383e-02
  1.1309201e-01   7.8242188e-03
  8.2095854e-02   1.4378301e-02
  7.0126192e-03   1.6998759e-02
 -5.8472259e-03   2.0377610e-03
 -1.7415981e-01   2.4636002e-02
  3.2831583e-02   8.3906120e-03
 -2.2579823e-01   1.7077850e-02
  3.6801890e-02   2.2290032e-02
 -3.8396727e-02   1.5960179e-02
 -9.5741847e-04   1.0184924e-02
 -7.5458162e-02   1.0139714e-02
  2.3329390e-02   1.5197729e-02
  8.2358904e-02   2.7028428e-02
  1.5037746e-02   1.4668998e-02
 -3.0431412e-02   2.7918994e-02
 -3.9104886e-02   5.3139329e-02
 -2.0799085e-01   3.5631448e-02
 -9.0506496e-03   7.4808649e-03
  9.7620279e-02   6.7791049e-03
 -9.3836626e-03   1.3489832e-02
  3.6497883e-02   1.9188039e-02
 -1.2138593e-03   2.6324036e-02
  9.6542118e-03   6.2147994e-02
  1.5602152e-02   2.0986975e-03
 -1.0808420e+00   1.7945317e-04
 -6.4711690e-01   7.7907322e-04
 -2.6684129e+00   1.0041894e-03
 -4.0742841e-01   1.0525435e-03
 -1.0369305e-01   5.8103859e-04
  1.9583899e-01   8.9549161e-03
 -1.4285419e-02   9.5557049e-03
  1.5776364e+00   1.1014129e-03
  4.9914211e-02   4.7565680e-03
  1.3702781e+00   4.4848565e-03
  1.0594361e+00   1.0315232e-02
  1.5062420e+00   1.8820158e-03
  1.6638547e+00   2.2218151e-03
 -7.2247428e-01   8.7349545e-03
  4.2764708e-01   7.9249684e-03
  1.1746006e+00   2.8993770e-02
  1.1877283e+00   3.8598801e-03
  1.2326851e+00   8.2227159e-03
 -2.3675781e-01   1.4974358e-02
  5.7696123e-02   1.3429729e-03
  1.0952467e+00   1.1673040e-02
  9.9743038e-01   1.8814344e-02
  5.3096586e-01   7.1774623e-03
  1.3234623e-01   1.3862692e-02
  7.9948179e-02   4.6667666e-03
  2.6603615e-02   2.6372299e-02
  3.8687672e-02   1.8088125e-02
  1.0403383e-01   1.3938269e-02
  2.4852887e-01   1.6772818e-02
 -1.9124767e-01   9.2192702e-03
  6.7353636e-01   3.2399816e-03
 -4.1840997e-02   2.7696874e-02
 -1.8584916e-02   5.4217265e-03
 -5.7649042e-02   1.8442381e-02
  1.0867810e-01   1.4416011e-02
 -3.0511940e-02   1.7758353e-02
 -3.7469217e-01   3.2055460e-02
  3.1583451e-03   9.3571311e-03
 -2.6478205e-02   9.8002665e-03
  3.6770333e-02   2.6579855e-02
 -1.0602351e-01   7.6912045e-03
 -1.1902104e-01   2.5227524e-02
  7.7652363e-03   2.5526375e-02
 -7.0422456e-02   1.4014110e-02
 -2.5764280e-03   1.0234716e-02
 -2.3531348e-02   2.1556742e-02
 -2.1346611e-01   3.3954304e-02
  2.8282857e-02   1.3692434e-02
  2.6945792e-02   1.8102946e-02
  2.6644064e-02   2.3035083e-02
  5.7988461e-02   2.8223557e-02
 -1.4149544e-01   2.1742793e-02
 -3.6521859e-02   1.1267512e-02
 -2.6694069e-02   6.4184833e-03
  1.6529498e-01   1.0262081e-02
  1.7959218e-01   1.2624167e-02
  1.2994701e-01   1.4584089e-02
 -2.3198710e-01   3.2263845e-03
 -7.8708537e-02   1.4794303e-02
 -3.1556380e-01   2.4517447e-02
 -4.7146511e-01   5.7751518e-03
 -4.9535912e-01   5.9898566e-03
  2.6291471e-02   8.1848269e-03
 -6.2730178e-02   1.4029318e-02
 -1.4380495e-01   2.3327384e-03
  7.3183231e-02   1.5824154e-02
 -1.1959594e-02   3.0667370e-02
  1.3073726e-01   2.8986191e-02
 -4.4467960e-02   1.5006566e-02
  4.4042837e-02   2.8938647e-02
  3.4119185e-02   6.3115083e-02
 -5.2446809e-02   1.3214281e-02
 -7.8488640e-02   3.1086417e-02
  2.1452247e-03   1.7131330e-02
 -2.6732090e-01   3.3605245e-03
 -4.9964283e-02   1.4059835e-02
 -6.5577954e-01   7.8775425e-04
  4.0305674e-02   3.9263807e-02
 -1.8220957e-01   2.6220396e-02
 -6.9931053e-02   1.8873636e-02
  1.3964820e-01   1.2690224e-02
 -4.2861748e-02   1.0570773e-02
  4.4270389e-02   2.2722680e-02
  5.8657244e-02   4.6315864e-02
  2.1710953e-02   1.2896067e-02
  1.3743490e-01   1.9581856e-02
  1.3265280e-01   6.3796728e-03
  5.9651334e-02   2.0739571e-03
  1.0806980e+00   3.4825932e-03
  2.9285238e-03   9.3841078e-03
  2.7732027e-01   5.6944980e-04
 -1.4672400e-01   1.6230744e-03
 -2.2516726e-01   1.2686121e-03
 -2.9822881e-03   1.8789460e-03
 -6.3798714e-01   9.3345693e-04
  3.1088606e-01   5.2073575e-03
 -1.1727546e-01   9.0392623e-03
  9.1398728e-01   8.3513074e-03
  1.8103819e-01   1.3024592e-03
  1.1212577e+00   1.4942375e-03
  6.7470348e-01   9.0363761e-03
  1.1727609e-01   6.8122805e-03
  4.9925742e-01   7.6032318e-03
 -5.8834946e-01   2.8808964e-02
  9.5371974e-01   6.7055477e-03
  6.4951533e-01   1.3990224e-02
  1.1405203e-02   1.3245517e-02
  5.3807676e-01   2.4560571e-02
  1.8160418e-02   4.4356780e-03
  1.8468661e+00   2.5504585e-03
  3.1922185e-01   2.2065634e-02
  1.3368365e-01   1.5088383e-02
  9.2479177e-02   1.8626744e-02
  1.3047692e-02   1.1795413e-02
  4.6824428e-01   4.8312335e-03
 -1.2164120e-01   2.5110474e-02
  1.5715110e-03   4.4062687e-03
 -2.3648294e-02   1.1946508e-02
 -7.5804023e-04   1.8800681e-02
 -2.8065819e-01   2.4316940e-02
  5.9428830e-02   5.4267976e-03
  1.3890843e-01   8.1530539e-03
  6.0174469e-02   2.5791595e-02
  7.6223277e-02   4.1142791e-03
 -1.1739627e-02   1.1465100e-02
 -1.6085696e-01   5.8824816e-03
 -6.2227555e-02   7.6149274e-03
  2.2011945e-01   1.4481507e-02
  1.8322702e-02   1.3046016e-02
  6.4997293e-02   2.2259194e-02
  5.3144727e-02   1.3968199e-02
 -1.3183819e-01   1.5438058e-02
  2.2879235e-02   1.3814325e-02
  3.3307802e-02   1.3175653e-02
  3.2158077e-02   1.0085363e-02
 -7.9701275e-02   5.0304040e-02
 -1.9940607e-01   1.1817553e-02
  1.2282848e-01   2.4967991e-02
 -1.7708628e-01   7.1800742e-03
 -4.4640660e-02   1.8766304e-02
 -1.4142500e-01   1.7715050e-02
  1.6670123e-03   1.8387286e-02
  1.9800092e-01   2.0408496e-02
  4.1746870e-02   1.2845173e-02
 -2.4438333e-02   3.2823670e-03
  6.2722668e-02   1.0365858e-02
  1.2629980e-01   4.4680580e-02
  1.6140126e-02   8.5265087e-03
  2.0131884e-02   1.9050974e-02
  3.2401904e-02   9.0234503e-03
  1.2413660e-01   2.7767825e-03
  1.0524712e-02   6.6436068e-03
 -1.0886469e-01   2.8297617e-03
 -5.1660407e-01   1.8186754e-03
 -1.5386562e-01   4.9674432e-03
  3.7749942e-02   3.7984818e-02
 -1.7156969e-01   1.5348875e-02
 -2.5095837e-03   1.2178368e-02
 -1.2223251e-02   1.1934196e-02
  3.6704723e-02   9.9540269e-03
 -1.2894224e-01   1.7431060e-02
 -7.1846968e-03   9.8842755e-03
 -1.3279784e-02   2.2423951e-02
  1.6536357e-02   4.5730365e-03
 -1.5284027e-01   2.1689506e-02
  1.1124643e-01   2.0105025e-02
 -2.5175190e-01   1.4591189e-02
  1.1675984e-01   1.4838593e-02
 -2.2487323e-01   3.0852744e-02
 -5.3149898e-02   7.6632709e-03
 -2.4278242e-02   1.3370506e-02
  1.7638242e-01   6.1208499e-03
 -3.1581237e-03   1.3541930e-02
 -8.5790670e-03   5.7911254e-03
  1.5212733e-01   1.0994323e-02
 -1.1248879e-02   1.4083983e-02
 -3.3410143e-02   3.4703705e-02
  2.6129510e-02   6.6594747e-03
 -1.1208935e-02   9.3251429e-03
 -1.1994667e-01   8.9102220e-03
 -1.0842858e-02   3.1986744e-03
  1.7915587e-01   2.8522762e-03
  1.2952101e-01   1.1236652e-02
  1.6754854e-01   1.1505393e-02
 -3.1902377e-02   6.3901786e-03
 -1.0754974e-01   1.4078024e-02
  1.2489934e-01   2.0669587e-02
  4.1407950e-02   8.0030281e-03
 -1.0931149e-01   4.7466033e-03
 -9.2151128e-02   7.4922601e-03
  6.5265983e-02   1.4214181e-02
 -2.9790178e-02   2.2621024e-02
 -1.4368282e-01   3.5875060e-02
 -4.6036277e-02   2.0881383e-02
  1.0868479e-02   1.6516626e-02
  2.9223720e-03   2.1907543e-03
 -7.8964569e-02   8.1068249e-03
  2.2873010e-02   2.4600604e-03
 -4.9408380e-02   8.9360951e-03
 -8.1080876e-02   1.1412345e-02
 -1.2784019e-01   2.4634687e-02
  1.3482417e-01   2.5449384e-03
 -9.0271212e-02   7.8254407e-03
  5.8339590e-01   9.4270324e-03
  2.8551512e-03   6.9820252e-03
  3.5878066e-02   1.9357730e-02
 -6.6343181e-02   1.6431417e-02
  1.1459848e-02   1.0005097e-02
 -2.2665478e-02   1.7566195e-02
  2.0610912e-02   2.8364599e-02
  2.7771721e+00   1.5311515e-03
  2.0593931e-01   8.5667223e-03
 -3.8717568e-01   1.0239807e-02
 -3.4302264e-02   1.0324566e-02
  2.2489775e-02   6.6376259e-03
 -2.5069205e-02   1.0456785e-02
 -2.3027351e-02   2.1647982e-02
 -5.6427348e-02   1.6905479e-02
  1.5746225e-01   2.6986744e-02
  1.0929628e-01   1.5920594e-02
 -6.2568579e-04   1.7730877e-02
 -5.9304811e-02   1.4046732e-02
 -4.8296027e-02   1.8853264e-02
  5.5795019e-03   2.8988341e-02
  9.1099413e-03   2.1178234e-02
  1.2005489e-01   1.3074467e-02
  7.4858558e-01   4.6752318e-04
  1.8944967e-01   2.6521163e-02
  6.6683397e-02   1.6093194e-02
  8.4338985e-02   6.5767681e-03
  5.5538103e-02   1.7146999e-02
  7.2460167e-02   2.3270644e-02
 -6.1617900e-02   2.2286002e-02
 -2.5269208e-02   2.0509930e-02
  3.6135703e-02   1.9374320e-02
  1.7536037e-02   1.0062548e-02
  6.2114164e-02   3.0655252e-02
  1.3878477e-01   3.0632205e-03
  1.7349609e-03   1.4105520e-02
 -3.0826474e-02   9.8490547e-03
 -7.3219496e-03   2.8775805e-03
 -6.2742032e-02   2.0098722e-02
 -3.8167257e-03   1.1585507e-02
 -1.4517410e-01   2.7668055e-02
 -5.6832813e-02   1.4163860e-02
 -1.0755189e-02   2.7657775e-02
  9.3737409e-02   2.3500170e-03
 -2.3353321e-02   1.4962301e-02
 -1.0310437e-01   2.2437042e-02
 -2.9771898e-03   9.2581976e-03
 -1.5301110e-02   4.0203203e-03
 -2.1772889e-02   1.3678591e-02
 -9.8316222e-02   7.8521036e-03
 -1.3444139e-02   1.1784185e-02
 -1.0590347e-02   1.0444379e-02
  3.0339411e-01   7.4846726e-03
  5.6793749e-02   2.0911455e-02
  4.4338472e-02   3.4899388e-02
  1.2323571e-01   6.0911546e-03
 -8.0123216e-02   1.8933719e-02
  5.2279662e-02   1.2058642e-02
 -1.1809488e-01   1.7277794e-02
  6.6381231e-02   3.7152126e-02
 -2.9960467e-02   2.4493897e-02
 -1.8610269e-01   2.7292153e-02
 -4.6745837e-03   1.8524293e-02
 -1.5231978e-02   7.0675244e-03
 -4.1789979e-02   3.7205141e-02
 -1.5747307e-02   8.4056761e-03
 -3.4582298e-03   3.6565337e-02
 -5.2084213e-01   7.8004674e-04
  5.2621914e-04   1.6377949e-03
 -1.9910110e-02   2.5576795e-03
 -4.0037341e-02   2.1563636e-03
  4.3783066e-01   1.5932086e-03
 -7.5216717e-01   5.8036596e-03
  3.0632317e-01   3.0878587e-03
 -1.1504073e+00   5.8961683e-03
 -2.5472084e-02   4.2515318e-03
 -7.0293111e-01   3.8716302e-03
 -9.6484751e-01   8.1555126e-03
 -5.5132482e-02   7.4421670e-03
 -1.4790199e+00   1.7437592e-02
  5.1464629e-01   2.4782820e-02
 -2.5644711e-01   7.7373669e-03
 -1.5570594e+00   1.5512369e-02
  2.9712051e-01   2.0751068e-03
 -1.1554414e+00   8.7565444e-03
  2.9085135e-02   5.6906762e-03
 -3.1402223e-02   3.1633114e-03
 -1.1530161e+00   1.9081004e-02
 -2.5217989e-01   6.3765701e-03
 -5.9417319e-01   1.8106882e-02
 -6.0423517e-01   5.6973249e-03
 -1.6020881e-01   7.3496476e-03
  1.2381363e-01   1.7916733e-02
 -1.3811454e-01   7.9846028e-03
 -1.6231848e-01   1.3697383e-02
  9.3480805e-03   4.2234105e-03
  2.2971991e-01   2.0055322e-02
 -1.1354901e-01   2.5239035e-02
 -2.4675871e-01   3.0267583e-02
  3.8909182e-02   2.4738925e-02
  8.8372670e-02   2.3034916e-03
 -6.9942378e-02   1.2831747e-02
 -1.4639646e-01   2.7271003e-02
  4.3427300e-02   1.4031619e-02
  4.7927624e-01   3.7692948e-03
 -1.3612455e-01   4.0679373e-02
 -8.6048588e-02   1.9218782e-02
 -1.0500745e-01   1.0623075e-02
 -3.3906654e-02   1.6729206e-02
 -1.5499412e-01   1.4610721e-02
 -3.1156840e-03   1.3997184e-02
  6.2301822e-02   4.5159031e-02
 -5.2677084e-02   8.2099419e-03
  1.1468833e-01   1.5086962e-02
  6.3003689e-02   2.0784831e-02
 -4.6318006e-02   2.8377345e-02
  4.4752758e-02   3.8273215e-02
  1.5080462e-01   2.0689143e-02
  4.3097530e-02   2.7445802e-02
  1.3039212e-01   7.1163131e-03
  1.6264401e-02   2.3435252e-02
  4.0705021e-02   2.7368066e-03
 -6.1076367e-03   2.6315633e-02
 -1.4219648e-01   1.3063382e-02
  7.8973882e-02   1.0222806e-02
 -6.3868575e-02   3.1655282e-02
  3.5382178e-02   3.8837509e-03
 -2.0244354e-02   6.8222213e-04
 -3.2674465e-01   2.4470440e-03
  6.1806154e-02   2.5017189e-03
 -4.9241193e-02   2.6678182e-03
 -3.0575350e-02   2.9815461e-03
 -2.4940405e-02   1.6774286e-02
  3.7897444e-01   5.1396959e-03
  9.3796127e-02   1.0033359e-02
 -2.2132482e-01   1.2737981e-02
 -3.5032073e-01   8.4082168e-03
 -3.9774779e-02   9.4422847e-03
  1.7503363e-01   1.1782128e-02
  2.2369670e-02   2.4007098e-03
  2.4120310e-01   8.5770637e-03
  5.1266253e-01   4.4378894e-03
 -1.8821789e-01   8.3312523e-03
  2.1816918e-01   1.2155713e-03
 -4.5932293e-01   1.9454107e-02
  3.3439028e-01   2.3618871e-02
  6.9395318e-03   2.9824805e-02
 -7.2927563e-03   4.3643691e-02
 -2.8410450e-02   2.1205340e-02
 -3.3872314e-02   2.9809035e-02
  2.3883963e-02   9.9708466e-03
 -6.1247870e-02   5.1367958e-03
 -1.8600386e-02   1.8310025e-02
  8.5145272e-03   2.2433691e-02
 -3.4971900e-02   1.3783976e-02
 -9.7357057e-02   5.5014595e-02
 -5.0372627e-02   4.0341772e-02
 -2.1817505e+00   6.1612064e-04
 -1.2374610e-01   3.3206928e-03
  8.5913140e-01   1.7882994e-03
 -6.1844368e-02   2.7776898e-03
 -3.3352828e-01   3.1014252e-03
 -1.9840827e-02   5.9708012e-03
 -5.0920263e-02   2.4404565e-03
  1.5109642e-02   1.3862768e-02
 -3.4912385e-02   6.3773254e-03
  2.3091257e-01   1.1204263e-02
  3.0120200e-01   1.0241548e-02
  2.9282704e-01   2.3368183e-03
 -8.0275074e-02   1.8876258e-02
 -6.8473183e-02   2.3622697e-02
  3.7571304e-02   2.2337865e-02
 -1.4664616e-01   1.1016658e-02
  1.0358293e-02   2.0618478e-02
  5.6931353e-03   1.4518505e-02
  3.8788223e-03   3.7492740e-03
  1.9653352e-01   1.7427821e-02
 -7.4266665e-02   5.1106499e-03
  2.1404319e-01   1.8343475e-02
  6.2250655e-02   9.9563552e-03
 -1.4461125e-01   2.1095812e-02
  2.4270694e-01   1.3484410e-02
 -1.8324842e-01   3.2506563e-02
 -2.7448293e-02   2.1069286e-02
 -8.1847966e-02   2.4426356e-02
  5.5281022e-03   6.8692765e-03
  1.9082803e-02   1.8588886e-02
  2.1732547e-03   1.0556237e-02
  1.6622873e-02   6.7236661e-03
  1.1434320e-01   1.1627953e-02
  1.6947655e-01   1.3327657e-02
 -3.1526324e-03   5.5797412e-03
  4.1904718e-01   6.4210072e-03
  9.3695566e-02   9.7888187e-03
  2.8446691e-02   2.1391891e-02
 -9.8739928e-03   5.2696832e-02
 -1.0172804e-02   5.6919204e-03
 -4.0478721e-02   3.9855100e-02
 -7.2804196e-03   1.8798446e-02
  3.6889192e-02   1.1366417e-02
  1.6427691e-01   3.2822568e-02
 -9.9304982e-02   1.1492942e-02
  5.6762351e-03   2.4032596e-02
  8.5565023e-02   2.5462596e-02
 -6.9689810e-02   2.0931812e-02
 -2.0855194e-02   6.8010874e-03
  9.6976645e-02   2.1063622e-02
  1.6013947e-01   1.0872071e-02
  2.1184811e-02   3.4341294e-02
  7.4341923e-02   8.4138727e-03
 -5.3232763e-02   1.1040598e-02
 -1.1457179e-01   4.5748050e-03
  6.7456186e-02   2.5407763e-02
  3.9279100e-01   1.3426044e-02
  1.2806968e-01   2.3335129e-02
  3.8998830e-01   4.8319284e-02
  9.5420638e-03   1.8752888e-02
  6.7863113e-01   4.0164036e-03
  1.1048143e-02   5.1651523e-03
  9.0957946e-01   1.8394580e-04
 -9.0306230e-02   1.3162873e-02
 -1.8059935e-02   1.3310209e-02
 -1.1000826e+00   2.5466268e-03
  1.3766502e-02   3.9832104e-02
 -1.2363005e-01   1.0259139e-02
 -6.3523497e-03   2.7284464e-02
 -1.7815290e-02   7.7706026e-03
 -4.0968496e-02   1.4793260e-02
 -8.6403453e-01   1.6166917e-03
 -2.6462397e-01   1.7645407e-02
 -5.7493340e-02   1.3248010e-02
 -1.2489384e+00   2.6019407e-03
  3.1282187e-01   5.4559200e-03
 -3.5228637e-01   1.1524409e-02
  5.4162800e-02   1.4511509e-02
  5.0690848e-02   9.8046307e-03
  1.3571855e-01   1.7130461e-02
 -3.7658975e-02   1.5635794e-02
  1.0418488e-01   2.5182823e-02
 -4.5610912e-02   2.2170609e-02
  5.6826677e-02   1.0056307e-02
 -9.9300370e-02   1.6775336e-02
  3.1714823e-02   4.3216553e-03
 -1.2099265e-01   2.7933365e-02
  1.2128662e-01   3.6813460e-02
 -5.8781996e-02   2.1790529e-02
 -2.6213812e-02   1.7613351e-02
  3.3128044e-01   1.8939353e-03
 -2.1885908e-01   5.0333785e-03
 -1.9945021e-01   1.3130581e-02
 -2.3206176e-02   1.0343974e-02
 -1.9750705e-02   4.3446789e-03
 -3.7794556e-02   1.4525202e-02
 -3.7032641e-02   2.1067943e-02
  6.1946742e-02   1.3672913e-02
  2.4485026e-02   5.4780245e-03
 -7.3606156e-02   1.8439241e-02
  7.9386860e-02   9.5598297e-03
 -2.4032803e-01   1.8123047e-02
 -2.8760898e-01   1.4379494e-03
  5.5245023e-02   3.2816026e-02
 -8.1412755e-03   2.2055974e-02
  3.0553371e-01   3.2431313e-03
 -9.8950453e-02   1.8692819e-02
  7.2041661e-02   8.8804243e-03
  3.6320936e-02   2.6087664e-02
  3.2999486e-02   2.9931841e-02
  8.9610703e-02   1.0686572e-02
  3.6276644e-01   5.1842132e-03
 -5.1787179e-02   3.1431443e-03
 -3.5620499e-02   1.3464034e-02
  4.6625584e-02   9.4519174e-03
  3.5462824e-03   1.5587797e-02
  1.4135820e-01   2.8048779e-03
  5.1287740e-02   1.6642217e-02
 -1.6763680e-01   1.6012419e-02
 -7.5586528e-02   1.5953777e-02
  5.1578108e-02   1.6390427e-03
  2.4291396e-01   1.3388526e-03
  4.2307028e-04   2.5649749e-02
 -1.1888195e-01   9.3388781e-03
 -1.4750960e-02   5.7350569e-03
 -5.9824482e-02   1.6617414e-02
 -1.3659522e-01   3.3111910e-03
 -4.1207615e-02   2.3812367e-02
 -2.1891414e-01   1.9713536e-02
  3.3137452e-02   3.8519032e-02
 -2.6791431e-02   2.2782164e-02
  9.2132941e-02   3.4374233e-02
 -1.0278419e-01   8.1373239e-03
  4.9045183e-02   4.3255255e-02
 -2.1711394e-02   6.3255578e-03
  4.2054940e-02   1.9021200e-02
  1.8974963e-01   1.6796581e-02
  9.8790862e-03   1.6361549e-02
 -1.3115993e-02   2.8889421e-03
 -6.0354140e-02   1.6695360e-02
 -1.9205672e-01   8.8008381e-03
  1.5537873e-01   1.3075461e-02
 -1.4306307e-01   2.1980330e-02
  1.2058854e-01   2.8739139e-02
  8.7937944e-02   4.8769382e-03
  1.3424422e-01   3.0114356e-02
 -1.7063456e-02   7.0603089e-03
 -6.5696232e-02   3.5430072e-03
  2.7046090e-03   5.2729272e-03
  4.0310752e-03   2.7282236e-02
 -1.8357445e+00   5.9106038e-04
  3.0488860e-02   1.0887502e-03
  6.0425168e-01   1.0790512e-03
  2.7870521e-01   1.3712149e-03
 -2.2926193e-01   4.6083581e-04
  5.9285413e-02   9.9095888e-03
  1.5963100e-02   1.6371857e-02
  2.0435029e-03   6.5946905e-03
  1.0308234e-01   1.4162458e-02
 -2.1350803e+00   2.5870439e-03
  4.9584486e-02   5.8632274e-03
 -1.7436873e-02   1.7033808e-02
  2.1323824e-02   1.6408117e-02
  7.8884475e-02   2.7172750e-02
  1.8362956e-01   3.4931134e-03
 -5.4911032e-02   1.8187337e-02
  1.2237334e-01   5.1447619e-03
 -6.6909939e-02   1.7098688e-02
  1.8273890e-01   7.7116839e-03
 -7.2860755e-02   9.8346239e-03
 -4.4708345e-02   5.6350837e-03
  1.3618183e-01   1.0842427e-02
 -1.3120870e-01   4.2515169e-03
 -9.7717280e-03   1.1318467e-02
 -2.1474893e-01   1.3672793e-02
  5.9298445e-02   1.1213602e-02
 -4.0340822e-02   1.4085172e-02
  2.9667560e-02   1.4323057e-02
  7.6360479e-02   2.3293665e-02
  4.6251986e-02   3.5298299e-02
 -3.9272591e-02   1.2108816e-02
 -1.2138902e-01   4.4897098e-02
  1.5796340e-01   3.1257026e-02
 -3.2988500e-02   3.4591884e-03
 -2.1275321e-01   3.3633774e-03
  3.4243709e-01   1.0915503e-02
 -3.6238320e-02   7.4726990e-03
 -3.1416360e-02   2.0195527e-02
  3.5233486e-01   3.8383055e-02
 -5.3993922e-02   9.5837852e-03
  1.2579401e-01   3.2717504e-02
 -1.7341211e-01   2.7123347e-02
  6.1984763e-02   1.1794704e-02
  1.2997741e-01   1.4059469e-02
 -1.2261819e-01   1.6122442e-02
  1.8556301e-01   1.5664095e-02
 -1.0366428e-02   2.0631332e-02
 -2.6380407e-02   8.0833901e-03
  3.8336255e-02   2.3191266e-02
  1.9331655e-02   2.7207687e-02
 -4.0359601e-02   1.4749032e-02
  3.4209669e-02   7.9002557e-03
  4.3722052e-02   2.3159321e-02
 -1.6273551e-01   2.7952269e-03
 -1.8925297e-01   6.3992203e-03
 -1.2521660e-01   3.2207888e-02
 -5.2597173e-02   4.0475611e-02
  2.2753161e-01   1.9502450e-02
 -1.3629019e-02   9.1023920e-03
 -4.8854638e-02   1.0490089e-02
  7.9224601e-02   1.4653805e-03
  1.5849367e-01   7.5096721e-03
  3.5791263e-02   7.4733244e-03
 -2.3180209e-01   6.6411896e-03
  6.1442532e-02   8.2464833e-03
 -1.4698336e-01   7.0208367e-03
 -2.6394391e-02   1.3183911e-02
  1.5356189e-01   5.8792038e-03
  1.0912918e+00   2.6427044e-03
  3.2894295e-01   7.8004813e-03
  9.6729398e-03   1.3914426e-02
 -1.8672845e-01   2.8122418e-02
  1.2520522e-01   2.3449056e-03
 -4.6036005e-02   8.8031050e-03
  1.8793443e-01   1.1586575e-02
 -9.6793748e-02   2.4844764e-02
  5.2397478e-02   1.2384596e-02
 -7.0798308e-02   4.2840566e-02
  4.1449908e-03   1.9376603e-03
  1.9900706e-01   3.3200026e-02
  5.5177845e-02   2.1962686e-03
 -4.5154303e-02   7.0713195e-03
  3.3684991e-02   1.8760374e-02
 -3.3036195e-02   8.5765440e-03
 -2.3325719e-02   1.1951189e-02
 -1.7205237e-01   1.1941127e-02
  3.0075425e-02   2.3816396e-02
  1.1635176e-01   2.2510542e-02
 -1.6471922e-03   2.3777729e-02
 -8.9114405e-02   2.7648801e-02
 -5.9737539e-01   3.0864289e-03
 -1.3594496e-01   3.7660589e-03
  3.7611863e-01   3.4785883e-03
 -3.3512425e-02   5.5248728e-03
 -2.2906828e-01   4.3496541e-03
 -7.5161919e-02   6.8976888e-03
  1.4795695e-01   2.5040133e-02
  1.0304318e-02   1.0068633e-02
  7.1881264e-02   3.2187961e-02
 -6.1789449e-02   1.2978745e-02
 -1.2108795e-01   9.7708143e-03
  9.1827437e-02   4.3463269e-03
  1.2327294e-02   4.3804236e-03
 -1.7065728e-02   2.6323128e-02
  2.8457219e-02   1.4553133e-02
 -1.1485319e-02   2.0869013e-02
 -1.0347924e-01   1.5681032e-02
 -7.0762716e-02   5.0746850e-03
  6.4615756e-02   4.1658785e-02
  1.0392057e-01   9.2702787e-03
 -8.2937375e-02   3.3024147e-02
 -5.0077885e-02   1.5185382e-02
 -3.1064648e-02   5.5342261e-03
 -3.1155940e-02   3.1376243e-02
 -1.7729566e-01   1.3876876e-03
 -4.7065679e-02   1.1971771e-02
  1.2108697e-01   3.4048915e-02
  2.1776492e-02   2.3117613e-02
 -4.3377180e-02   2.0150324e-02
  5.8736004e-02   5.0022129e-02
  4.3322500e-03   1.9846829e-03
  3.7535988e-02   2.9170318e-03
  1.3807340e-02   1.3984608e-03
 -7.1848527e-02   7.3341276e-03
  2.0125942e-01   6.2545836e-03
  1.7577955e-02   9.1600167e-03
 -1.0763606e-01   9.3321120e-03
  2.1750705e-02   1.3946929e-02
 -1.4518967e-01   6.4227548e-03
  2.9506883e-02   1.9518340e-02
  4.0279482e-02   1.7410826e-02
 -4.0154550e-02   8.8268556e-03
  1.0056516e-02   1.4071828e-02
 -1.0333989e-01   2.3533378e-02
 -6.6333920e-02   1.6398111e-02
  2.1858862e-02   2.6681693e-02
  9.6440278e-03   1.3431052e-02
  1.3817141e-02   4.2335335e-03
  5.8673028e-02   1.0133233e-02
  3.6268000e-02   1.9018179e-02
 -1.0734973e-01   3.0777279e-02
 -6.6825092e-02   1.7337458e-02
  6.7046598e-02   1.0986920e-02
 -3.2952338e-02   4.3406207e-03
  8.5070081e-02   1.0023592e-02
 -6.3976110e-03   3.6339384e-02
  8.8308612e-03   1.7343011e-02
  2.1206837e-02   1.8126646e-02
 -4.1928250e-02   1.7650692e-02
 -5.0519384e-02   1.8699698e-02
  9.0294428e-02   9.7570574e-04
 -9.2684224e-02   5.4956027e-03
  6.3132726e-02   4.4354158e-03
 -4.3370221e-02   9.7549101e-03
 -3.1123304e-01   5.6762211e-03
  2.9034317e-01   1.1595269e-02
  3.0429661e-01   5.1017343e-03
 -5.4186307e-02   3.1280510e-02
 -2.7561212e-02   8.0341147e-03
  2.1862868e-02   2.3273483e-02
 -1.9248666e-01   1.2568588e-02
  5.7662301e-02   1.4500440e-02
 -1.6318525e-03   1.4257616e-02
  7.2420597e-02   2.0995267e-02
 -1.5989579e-01   1.1911092e-02
  3.1565260e-02   3.8883995e-02
  3.4685913e-02   1.1036292e-02
 -3.5650603e-02   9.3163904e-03
 -1.3754161e-01   1.9383203e-02
  6.2345751e-02   1.8361744e-02
 -2.1997683e-01   1.0523117e-02
 -4.2699575e-02   1.8237041e-02
 -1.6182332e-01   3.3891510e-02
  7.7197842e-02   5.2164739e-04
 -5.1690149e-03   7.7828229e-03
  5.4758355e-02   1.7441450e-02
 -6.5803967e-02   1.6742080e-02
 -1.6755995e-01   1.3603046e-02
 -2.2128117e-01   1.9922920e-02
  1.3833272e-01   2.4417669e-02
  3.1932831e-02   8.7100239e-03
 -2.2659997e-02   1.5342227e-02
  9.5089324e-02   2.5354056e-02
  4.4894423e-02   1.6491098e-02
  4.4653900e-02   1.2648153e-02
  1.6807409e-01   3.2254443e-02
 -6.0445067e-02   1.4463667e-02
  4.4247996e-02   1.2600300e-02
 -3.5512310e-02   2.6378356e-02
  3.2349294e-01   2.3768738e-02
 -1.4937991e-01   1.0547086e-02
 -3.8441557e-02   1.7318541e-02
  2.4159325e-02   5.7869114e-02
 -5.5413218e-03   2.6799560e-02
 -4.3625832e-02   2.1964809e-02
  1.0439219e-02   1.6538147e-02
  6.3622240e-03   1.3794413e-02
  9.0967920e-03   2.4084730e-02
  1.9782110e-01   2.2080893e-02
  5.5044293e-02   1.2182432e-02
 -1.2904151e-01   1.6854197e-02
  4.3915749e-02   2.2569455e-02
  3.6530022e-02   1.0653045e-02
  7.9476885e-02   2.1016505e-02
 -1.5133560e-01   5.2031120e-03
  3.7028927e-03   3.9972417e-02
 -3.9059225e-02   1.7401494e-02
  3.0411502e-02   6.3756751e-03
 -1.6515811e-01   2.7315972e-02
 -9.5452167e-02   1.9543606e-03
  6.4943130e-03   6.0982010e-03
 -6.5178454e-02   1.5624645e-02
 -5.5408739e-02   4.5954785e-03
 -4.4815723e-02   6.8944106e-03
 -2.6215134e-02   1.3749027e-02
  3.5026681e-03   3.5623360e-02
  2.4911432e-02   2.5279744e-02
  1.9255307e-02   1.2116154e-02
  6.7727447e-02   2.9982153e-02
 -1.2400661e-02   3.7860200e-02
  7.8828186e-02   1.7420521e-02
 -2.4681389e-02   1.5435895e-02
 -1.1524069e-01   2.7785677e-02
 -3.8290001e-02   5.7425466e-03
 -3.7825834e-03   1.6424414e-02
  1.3996599e-02   9.3648545e-03
 -1.7321281e-02   1.1845827e-02
  3.1879034e-02   1.3563642e-02
 -4.6342555e-03   2.3502626e-02
  1.2216191e-01   2.2911939e-03
 -8.7580048e-02   7.5707897e-03
 -3.9021615e-02   2.3227567e-02
 -9.7224995e-02   1.7379127e-02
  2.0506212e-02   1.9799510e-02
  2.0912092e-02   9.4595877e-03
 -5.3867284e-02   2.3282208e-03
 -5.5999123e-02   7.8573991e-03
 -1.3033952e-01   3.8002618e-02
 -1.1946273e-01   2.2264102e-02
  1.2967578e-02   1.4418977e-02
 -7.3257476e-02   1.5837254e-02
 -1.0659549e-01   2.2813356e-02
 -1.3458903e-01   1.6255753e-02
 -1.1602896e-01   1.5759433e-02
  7.1713757e-03   1.2111243e-02
  1.4004866e+00   1.1706487e-03
  2.8990802e-01   1.0693568e-02
  4.2379370e-01   9.3157319e-03
  8.6309589e-02   1.2503791e-02
  2.0909704e-01   2.0444218e-02
  1.1304395e-02   2.1672517e-02
  4.2995587e-02   8.0215558e-03
  1.0849938e-01   2.1922860e-02
  3.4948144e-02   3.7068808e-03
 -5.3781867e-02   3.8986005e-02
 -1.6694391e-02   1.0163637e-02
 -1.0520030e-01   1.9742876e-02
  4.6461523e-02   1.9333526e-02
 -1.0346438e-01   1.3174431e-02
 -9.0210438e-02   2.0473897e-02
  1.3375598e-01   1.0785527e-02
  2.8340714e-02   1.0575010e-02
  3.5157681e-02   1.6267542e-02
 -7.0783205e-02   3.1421080e-02
  1.0918723e-01   5.7207313e-03
  2.3718258e-02   2.8824475e-02
 -6.1983388e-02   2.3224117e-02
 -3.1160830e-02   4.6095662e-03
 -2.4123204e-01   7.5439364e-03
 -4.5875419e-02   7.3177558e-03
  1.4281604e-01   2.0694960e-04
  8.4834866e-02   2.0316727e-03
 -6.2140249e-02   1.7417608e-03
 -4.1673873e-03   5.8222022e-03
 -3.8995087e-02   1.6195142e-03
  7.8658111e-02   1.5611285e-02
 -9.5347106e-02   8.8859610e-03
 -3.3778942e-03   5.8260881e-03
  1.1663724e-01   8.0003180e-03
  4.8601866e-01   9.2960633e-03
  4.5012724e-02   2.4125559e-02
 -8.3141603e-02   3.1443600e-02
  7.1457110e-04   1.4586540e-02
 -3.9919427e-01   1.7522359e-02
  8.4015010e-03   3.0132593e-03
  3.1449512e-01   1.6515955e-02
  2.9806675e-02   1.4294536e-02
  1.1487050e-02   2.5459144e-02
 -3.4145808e-01   1.2988448e-02
  7.7213295e-02   1.2491791e-02
  2.6209733e-01   2.3682328e-02
 -6.8060473e-02   5.9186169e-03
  2.1002360e-02   1.5229017e-02
 -2.2731639e-01   1.0430917e-02
  2.2756681e-02   9.2491424e-03
 -8.6473078e-02   1.6785070e-02
 -9.7001292e-02   2.2285847e-02
 -7.9057850e-02   3.0992512e-02
 -3.7321739e-02   5.0255535e-03
  6.3009627e-02   1.9703835e-02
 -1.9613914e-02   5.9323846e-03
  1.6906132e-01   2.9213598e-02
  5.2829791e-02   3.3597808e-02
 -7.1322680e-02   2.4023347e-02
  2.6198382e-02   5.3809010e-03
 -1.5493777e-01   1.2608967e-02
  2.1782617e-01   3.0282306e-02
  2.8239110e-01   3.9617814e-02
 -1.2843300e-01   5.2368320e-03
  1.0720150e-01   2.1038285e-02
  4.1092601e-02   1.9540202e-02
  7.0266686e-02   3.4199361e-02
  2.6388591e-02   8.1040319e-03
 -7.4104100e-02   1.5163009e-02
 -1.7801117e-02   3.6463808e-02
  2.9071961e-02   1.4021865e-02
 -7.3437326e-02   1.0546964e-02
 -9.5279636e-03   1.3843514e-02
  2.6330007e-02   3.0042412e-02
  4.4277880e-02   3.9195623e-02
 -1.2658852e-01   1.8074179e-02
 -6.2205799e-02   3.3345800e-02
 -1.0126609e-02   3.1776257e-02
 -8.0952987e-02   3.8829997e-02
  1.1616532e-01   1.8218845e-02
 -5.5537652e-02   4.5951470e-03
  1.6962893e-01   1.3661437e-02
 -1.0774506e-02   2.0009110e-02
 -9.7999454e-02   5.2214013e-03
  3.4045193e-02   2.7844051e-02
  7.5551964e-02   7.3984717e-03
  2.9456045e-02   4.0369122e-03
  9.7471184e-01   2.7838172e-04
  1.6363775e+00   4.1250126e-03
 -7.5500771e-02   8.6381678e-03
  7.1509153e-01   9.5651986e-04
 -1.0145884e-01   6.7558610e-03
 -5.6499667e-02   1.2261537e-02
  1.5598292e-02   1.0608369e-02
 -8.4782839e-01   1.1212288e-03
  5.4851577e-02   2.0726178e-02
 -7.3169261e-01   5.1889144e-04
 -9.4531393e-01   2.0207146e-03
  3.2146409e-01   3.3342307e-03
  2.3200936e+00   9.7082142e-04
  3.1084625e-02   1.6084716e-02
 -6.3978106e-02   4.3001263e-03
  1.3122894e-02   1.2867239e-02
 -8.2674034e-02   1.9292641e-02
  1.5588005e+00   4.6666179e-04
 -5.3530086e-02   1.6633185e-02
  3.4890510e-02   5.1037902e-03
 -4.7932664e-01   5.6855468e-04
  7.2084874e-02   2.0782594e-02
 -9.5609385e-01   8.7448454e-04
 -1.0060028e-02   1.3073740e-02
 -3.3629715e-01   1.9897411e-02
 -2.1324253e-02   2.7622988e-02
  4.6626490e-02   4.8761214e-03
  1.2573146e+00   1.1577192e-02
 -1.0302287e-02   2.2665563e-03
  1.5290421e-02   6.6911097e-04
  1.9685994e+00   7.2953734e-04
 -3.7154847e-01   3.3516993e-03
 -1.5357177e-01   3.8658548e-04
  1.6400084e+00   2.0304369e-03
  1.2913610e-01   3.6841189e-03