54
config_type=slice_sample pbc="T T T" energy=-187.09321389 virial="-21.754137383662773 0.13683342265310255 0.36419984980258646 0.13683342265310255 -19.33106632133983 0.04549229997534102 0.36419984980258646 0.04549229997534102 -2.480970353200651" Lattice="10.21062192 0.0 0.0 0.0 10.21062192 0.0 0.0 0.0 36.525987" Properties=species:S:1:pos:R:3:force:R:3:Z:I:1
Cu 0.000000E+00 0.000000E+00 1.500000E+01 -1.147400E-02 9.450000E-04 3.579500E-02 29
Cu 2.552660E+00 0.000000E+00 1.500000E+01 -5.660000E-04 -4.374000E-03 3.260200E-02 29
Cu 5.105310E+00 0.000000E+00 1.500000E+01 1.698000E-02 7.783000E-03 2.023900E-02 29
Cu 7.657970E+00 0.000000E+00 1.500000E+01 -8.079000E-03 1.518800E-02 -3.267000E-03 29
Cu 0.000000E+00 2.552660E+00 1.500000E+01 -9.871000E-03 -6.005000E-03 3.519500E-02 29
Cu 2.552660E+00 2.552660E+00 1.500000E+01 -6.021000E-03 1.396000E-03 3.182700E-02 29
Cu 5.105310E+00 2.552660E+00 1.500000E+01 1.304700E-02 -1.798800E-02 2.441100E-02 29
Cu 7.657970E+00 2.552660E+00 1.500000E+01 -1.503000E-03 -2.284600E-02 4.521000E-03 29
Cu 0.000000E+00 5.105310E+00 1.500000E+01 1.594000E-02 2.033700E-02 1.197200E-02 29
Cu 2.552660E+00 5.105310E+00 1.500000E+01 -1.848900E-02 2.388500E-02 1.756000E-02 29
Cu 5.105310E+00 5.105310E+00 1.500000E+01 2.745000E-03 1.844700E-02 1.662400E-02 29
Cu 7.657970E+00 5.105310E+00 1.500000E+01 2.200000E-05 2.291000E-03 3.032700E-02 29
Cu 0.000000E+00 7.657970E+00 1.500000E+01 1.755900E-02 -2.018300E-02 1.023500E-02 29
Cu 2.552660E+00 7.657970E+00 1.500000E+01 -1.147300E-02 -2.433400E-02 9.018000E-03 29
Cu 5.105310E+00 7.657970E+00 1.500000E+01 -9.400000E-05 -9.630000E-03 2.004200E-02 29
Cu 7.657970E+00 7.657970E+00 1.500000E+01 -3.510000E-03 2.813000E-03 2.193100E-02 29
Cu 1.276330E+00 1.276330E+00 1.680500E+01 1.075730E-01 1.580200E-02 -3.502040E-01 29
Cu 3.828980E+00 1.276330E+00 1.680500E+01 -8.101500E-02 3.881000E-03 -2.501300E-02 29
Cu 6.381640E+00 1.276330E+00 1.680500E+01 4.373200E-02 6.733000E-03 -9.531800E-02 29
Cu 8.934290E+00 1.276330E+00 1.680500E+01 -1.403140E-01 9.740000E-04 -1.905560E-01 29
Cu 1.276330E+00 3.828980E+00 1.680500E+01 -1.294200E-02 6.969000E-02 -1.179710E-01 29
Cu 3.828980E+00 3.828980E+00 1.680500E+01 -5.096000E-02 -4.149200E-02 1.582000E-03 29
Cu 6.381640E+00 3.828980E+00 1.680500E+01 3.098100E-02 1.029900E-02 -5.950200E-02 29
Cu 8.934290E+00 3.828980E+00 1.680500E+01 1.608100E-02 -3.572200E-02 -1.446400E-02 29
Cu 1.276330E+00 6.381640E+00 1.680500E+01 -1.905000E-03 1.049000E-03 -5.920400E-02 29
Cu 3.828980E+00 6.381640E+00 1.680500E+01 1.389400E-02 1.671000E-03 -5.671100E-02 29
Cu 6.381640E+00 6.381640E+00 1.680500E+01 4.418000E-03 1.394800E-02 -3.977400E-02 29
Cu 8.934290E+00 6.381640E+00 1.680500E+01 -5.995000E-03 7.040000E-04 -4.131800E-02 29
Cu 1.276330E+00 8.934290E+00 1.680500E+01 1.563000E-03 -8.483200E-02 -1.454700E-01 29
Cu 3.828980E+00 8.934290E+00 1.680500E+01 -6.630800E-02 3.739300E-02 -1.382400E-02 29
Cu 6.381640E+00 8.934290E+00 1.680500E+01 3.591900E-02 -3.544900E-02 -7.820800E-02 29
Cu 8.934290E+00 8.934290E+00 1.680500E+01 1.391500E-02 3.340100E-02 -1.236200E-02 29
Cu 1.018820E+01 1.020632E+01 1.858329E+01 -1.427610E-01 -1.947880E-01 1.842570E-01 29
Cu 2.530370E+00 1.017764E+01 1.862402E+01 -3.823800E-02 2.674900E-02 -7.719900E-02 29
Cu 5.116280E+00 1.020898E+01 1.857524E+01 7.508100E-02 -1.242760E-01 -1.519150E-01 29
Cu 7.655860E+00 3.540000E-03 1.861158E+01 -4.387000E-02 -2.269600E-02 -3.037900E-02 29
Cu 1.018820E+01 2.556960E+00 1.858329E+01 -6.639000E-03 2.561800E-02 2.193890E-01 29
Cu 2.530370E+00 2.585630E+00 1.862402E+01 3.166700E-02 1.667400E-02 -1.305190E-01 29
Cu 5.116280E+00 2.554300E+00 1.857524E+01 -2.905500E-02 3.639600E-02 5.648200E-02 29
Cu 7.655860E+00 2.549120E+00 1.861158E+01 -1.523100E-02 1.051300E-02 -3.842400E-02 29
Cu 2.570000E-03 5.105800E+00 1.860328E+01 9.947000E-03 -1.093700E-02 -1.257000E-03 29
Cu 2.553530E+00 5.112260E+00 1.859629E+01 -5.863000E-03 7.879000E-03 4.604200E-02 29
Cu 5.105460E+00 5.105210E+00 1.860304E+01 -3.078400E-02 -2.977000E-03 2.297900E-02 29
Cu 7.660210E+00 5.106180E+00 1.859850E+01 2.862700E-02 -1.632900E-02 4.160300E-02 29
Cu 2.570000E-03 7.657480E+00 1.860328E+01 -4.829000E-03 -4.774000E-03 -1.041700E-02 29
Cu 2.553530E+00 7.651020E+00 1.859629E+01 7.015000E-03 -1.824600E-02 5.194700E-02 29
Cu 5.105460E+00 7.658070E+00 1.860304E+01 -3.216700E-02 5.249000E-02 6.992300E-02 29
Cu 7.660210E+00 7.657100E+00 1.859850E+01 2.463700E-02 2.977200E-02 5.115100E-02 29
C 2.541850E+00 8.552900E-01 2.154346E+01 6.557260E-01 5.250760E-01 -4.979630E-01 6
O 3.696220E+00 9.936700E-01 2.081541E+01 -2.178590E-01 -2.509870E-01 1.305023E+00 8
H 1.035370E+00 1.203270E+00 1.907991E+01 3.265380E-01 2.066560E-01 2.568970E-01 1
H 4.234060E+00 1.559900E-01 2.084077E+01 -2.727860E-01 1.455390E-01 -3.006450E-01 1
H 2.100120E+00 1.009981E+01 2.171102E+01 -3.061100E-02 -4.397850E-01 1.017900E-01 1
H 2.195270E+00 1.775690E+00 2.200332E+01 -1.923940E-01 1.665700E-02 -1.894800E-01 1
54
config_type=slice_sample pbc="T T T" energy=-184.23191067 virial="-17.106863636181814 0.22413395442396333 4.425968206691825 0.22413395442396333 -21.352954242971144 0.28010802257544093 4.425968206691825 0.28010802257544093 -0.8388979768180048" Lattice="10.21062192 0.0 0.0 0.0 10.21062192 0.0 0.0 0.0 36.525987" Properties=species:S:1:pos:R:3:force:R:3:Z:I:1
Cu 0.000000E+00 0.000000E+00 1.500000E+01 -1.148600E-02 1.226400E-02 2.680800E-02 29
Cu 2.552660E+00 0.000000E+00 1.500000E+01 -4.550000E-04 6.710000E-03 8.290000E-03 29
Cu 5.105310E+00 0.000000E+00 1.500000E+01 6.275000E-03 2.864400E-02 -5.950000E-04 29
Cu 7.657970E+00 0.000000E+00 1.500000E+01 8.800000E-04 3.861200E-02 5.510000E-04 29
Cu 0.000000E+00 2.552660E+00 1.500000E+01 -1.223400E-02 -1.163700E-02 2.607000E-02 29
Cu 2.552660E+00 2.552660E+00 1.500000E+01 9.240000E-04 -6.877000E-03 1.022800E-02 29
Cu 5.105310E+00 2.552660E+00 1.500000E+01 5.185000E-03 -2.739600E-02 -5.460000E-04 29
Cu 7.657970E+00 2.552660E+00 1.500000E+01 7.850000E-04 -3.762600E-02 2.406000E-03 29
Cu 0.000000E+00 5.105310E+00 1.500000E+01 1.412900E-02 1.187700E-02 5.721000E-03 29
Cu 2.552660E+00 5.105310E+00 1.500000E+01 6.751000E-03 1.796600E-02 1.227900E-02 29
Cu 5.105310E+00 5.105310E+00 1.500000E+01 -1.661900E-02 1.233100E-02 4.949000E-03 29
Cu 7.657970E+00 5.105310E+00 1.500000E+01 -2.008000E-03 1.826600E-02 2.577400E-02 29
Cu 0.000000E+00 7.657970E+00 1.500000E+01 1.299500E-02 -1.317000E-02 2.410000E-03 29
Cu 2.552660E+00 7.657970E+00 1.500000E+01 6.187000E-03 -1.879700E-02 1.750200E-02 29
Cu 5.105310E+00 7.657970E+00 1.500000E+01 -1.582100E-02 -1.450500E-02 8.074000E-03 29
Cu 7.657970E+00 7.657970E+00 1.500000E+01 -1.369000E-03 -1.951600E-02 2.837600E-02 29
Cu 1.276330E+00 1.276330E+00 1.680500E+01 -8.400000E-04 6.847000E-03 -5.491500E-02 29
Cu 3.828980E+00 1.276330E+00 1.680500E+01 -5.792100E-02 -7.500000E-04 -1.926450E-01 29
Cu 6.381640E+00 1.276330E+00 1.680500E+01 4.218300E-02 3.991000E-03 -1.130030E-01 29
Cu 8.934290E+00 1.276330E+00 1.680500E+01 -3.181400E-02 3.428000E-03 -9.899700E-02 29
Cu 1.276330E+00 3.828980E+00 1.680500E+01 3.731400E-02 -2.331000E-03 -4.285500E-02 29
Cu 3.828980E+00 3.828980E+00 1.680500E+01 -4.916600E-02 -6.753000E-03 -4.711600E-02 29
Cu 6.381640E+00 3.828980E+00 1.680500E+01 -6.250000E-03 -1.057000E-02 -3.244600E-02 29
Cu 8.934290E+00 3.828980E+00 1.680500E+01 -1.409300E-02 1.130800E-02 -4.590100E-02 29
Cu 1.276330E+00 6.381640E+00 1.680500E+01 -9.520000E-03 4.688000E-03 -4.012600E-02 29
Cu 3.828980E+00 6.381640E+00 1.680500E+01 1.673100E-02 1.203000E-03 -6.455300E-02 29
Cu 6.381640E+00 6.381640E+00 1.680500E+01 -2.189100E-02 5.020000E-03 -2.449900E-02 29
Cu 8.934290E+00 6.381640E+00 1.680500E+01 1.687100E-02 -2.793000E-03 -3.526000E-02 29
Cu 1.276330E+00 8.934290E+00 1.680500E+01 3.039000E-02 -1.221600E-02 -5.300500E-02 29
Cu 3.828980E+00 8.934290E+00 1.680500E+01 -5.308000E-02 8.095000E-03 -3.390900E-02 29
Cu 6.381640E+00 8.934290E+00 1.680500E+01 1.077000E-03 2.050000E-04 -3.905900E-02 29
Cu 8.934290E+00 8.934290E+00 1.680500E+01 -1.154200E-02 -1.312800E-02 -4.070500E-02 29
Cu 1.018820E+01 1.020632E+01 1.858329E+01 7.022700E-02 -1.882000E-03 1.313460E-01 29
Cu 2.530370E+00 1.017764E+01 1.862402E+01 -1.837000E-03 4.052360E-01 1.855830E-01 29
Cu 5.116280E+00 1.020898E+01 1.857524E+01 -3.905900E-02 5.301200E-02 3.382470E-01 29
Cu 7.655860E+00 3.540000E-03 1.861158E+01 1.293000E-03 9.059000E-03 -3.138800E-02 29
Cu 1.018820E+01 2.556960E+00 1.858329E+01 6.539300E-02 4.131000E-03 1.244860E-01 29
Cu 2.530370E+00 2.585630E+00 1.862402E+01 4.283900E-02 -4.269060E-01 2.041680E-01 29
Cu 5.116280E+00 2.554300E+00 1.857524E+01 -7.674800E-02 -6.954000E-02 3.790460E-01 29
Cu 7.655860E+00 2.549120E+00 1.861158E+01 -1.160000E-03 -4.380000E-03 -3.069100E-02 29
Cu 2.570000E-03 5.105800E+00 1.860328E+01 2.978200E-02 -1.381800E-02 2.648800E-02 29
Cu 2.553530E+00 5.112260E+00 1.859629E+01 -1.495100E-02 -1.579000E-03 6.524000E-03 29
Cu 5.105460E+00 5.105210E+00 1.860304E+01 -1.656400E-02 -1.460300E-02 8.275000E-03 29
Cu 7.660210E+00 5.106180E+00 1.859850E+01 -2.815000E-03 -6.286600E-02 4.075200E-02 29
Cu 2.570000E-03 7.657480E+00 1.860328E+01 2.983000E-02 1.171600E-02 2.499300E-02 29
Cu 2.553530E+00 7.651020E+00 1.859629E+01 -8.856000E-03 4.970000E-04 7.333000E-03 29
Cu 5.105460E+00 7.658070E+00 1.860304E+01 -2.209600E-02 2.157000E-02 1.408400E-02 29
Cu 7.660210E+00 7.657100E+00 1.859850E+01 -3.040000E-03 5.889200E-02 4.172100E-02 29
C 3.773850E+00 1.311750E+00 2.088519E+01 1.983150E+00 1.350900E-01 6.864050E-01 6
O 4.833020E+00 1.358430E+00 2.182713E+01 2.229524E+00 1.419830E-01 1.007255E+00 8
H 3.633020E+00 2.419140E+00 2.083345E+01 -1.139897E+00 1.174340E-01 -1.828540E-01 1
H 5.664700E+00 1.436270E+00 2.130738E+01 9.836700E-02 -3.220000E-03 4.695250E-01 1
H 2.902440E+00 1.264510E+00 2.002530E+01 -1.984333E+00 -8.855000E-02 -2.479907E+00 1
H 3.789310E+00 1.965700E-01 2.077950E+01 -1.121618E+00 -2.646670E-01 -1.906900E-01 1
54
config_type=slice_sample pbc="T T T" energy=-183.64130453 virial="-18.185725176506114 0.3299261316393462 -2.481921080472863 0.3299261316393462 -20.100442366377337 -1.7878901717581517 -2.481921080472863 -1.7878901717581517 2.965603580210684" Lattice="10.21062192 0.0 0.0 0.0 10.21062192 0.0 0.0 0.0 36.525987" Properties=species:S:1:pos:R:3:force:R:3:Z:I:1
Cu 0.000000E+00 0.000000E+00 1.500000E+01 -5.469000E-03 1.356000E-02 5.585000E-03 29
Cu 2.552660E+00 0.000000E+00 1.500000E+01 6.297000E-03 1.796400E-02 6.797000E-03 29
Cu 5.105310E+00 0.000000E+00 1.500000E+01 -9.118000E-03 2.836000E-03 7.390000E-04 29
Cu 7.657970E+00 0.000000E+00 1.500000E+01 5.535000E-03 1.240400E-02 1.996800E-02 29
Cu 0.000000E+00 2.552660E+00 1.500000E+01 -7.580000E-04 -1.073600E-02 -3.905000E-03 29
Cu 2.552660E+00 2.552660E+00 1.500000E+01 2.487000E-03 -1.199500E-02 6.784000E-03 29
Cu 5.105310E+00 2.552660E+00 1.500000E+01 -6.819000E-03 -6.180000E-04 -4.850000E-04 29
Cu 7.657970E+00 2.552660E+00 1.500000E+01 6.636000E-03 -1.101300E-02 2.418600E-02 29
Cu 0.000000E+00 5.105310E+00 1.500000E+01 -1.129200E-02 6.792000E-03 1.313700E-02 29
Cu 2.552660E+00 5.105310E+00 1.500000E+01 7.814000E-03 7.499000E-03 1.263400E-02 29
Cu 5.105310E+00 5.105310E+00 1.500000E+01 -7.406000E-03 9.979000E-03 1.981800E-02 29
Cu 7.657970E+00 5.105310E+00 1.500000E+01 1.266400E-02 2.030600E-02 1.964000E-03 29
Cu 0.000000E+00 7.657970E+00 1.500000E+01 -1.067700E-02 -1.229300E-02 2.994600E-02 29
Cu 2.552660E+00 7.657970E+00 1.500000E+01 1.482200E-02 -1.302300E-02 1.841100E-02 29
Cu 5.105310E+00 7.657970E+00 1.500000E+01 -1.297000E-02 -8.785000E-03 1.034600E-02 29
Cu 7.657970E+00 7.657970E+00 1.500000E+01 7.506000E-03 -2.115800E-02 1.599100E-02 29
Cu 1.276330E+00 1.276330E+00 1.680500E+01 3.339100E-02 3.640000E-04 -6.454800E-02 29
Cu 3.828980E+00 1.276330E+00 1.680500E+01 -6.385400E-02 5.986000E-03 -1.541760E-01 29
Cu 6.381640E+00 1.276330E+00 1.680500E+01 3.324300E-02 5.505000E-03 -7.610400E-02 29
Cu 8.934290E+00 1.276330E+00 1.680500E+01 -4.941200E-02 1.753000E-03 -9.160600E-02 29
Cu 1.276330E+00 3.828980E+00 1.680500E+01 5.232400E-02 -5.889500E-02 -1.369400E-02 29
Cu 3.828980E+00 3.828980E+00 1.680500E+01 -5.347700E-02 -3.563100E-02 -3.091800E-02 29
Cu 6.381640E+00 3.828980E+00 1.680500E+01 4.045800E-02 1.773200E-02 -6.242000E-02 29
Cu 8.934290E+00 3.828980E+00 1.680500E+01 -5.293300E-02 3.014400E-02 -4.850900E-02 29
Cu 1.276330E+00 6.381640E+00 1.680500E+01 -3.153900E-02 -5.515000E-03 -5.272900E-02 29
Cu 3.828980E+00 6.381640E+00 1.680500E+01 1.258300E-02 6.130000E-04 -6.795000E-02 29
Cu 6.381640E+00 6.381640E+00 1.680500E+01 3.742000E-03 -1.407000E-02 -1.645100E-02 29
Cu 8.934290E+00 6.381640E+00 1.680500E+01 2.253400E-02 1.107300E-02 -3.905800E-02 29
Cu 1.276330E+00 8.934290E+00 1.680500E+01 7.893100E-02 7.227700E-02 2.873500E-02 29
Cu 3.828980E+00 8.934290E+00 1.680500E+01 -5.182300E-02 2.958900E-02 -4.191700E-02 29
Cu 6.381640E+00 8.934290E+00 1.680500E+01 1.240500E-02 -6.915000E-03 -3.260700E-02 29
Cu 8.934290E+00 8.934290E+00 1.680500E+01 -4.870100E-02 -4.306700E-02 -5.965900E-02 29
Cu 1.018820E+01 1.020632E+01 1.858329E+01 -1.515000E-02 -8.517000E-03 1.009360E-01 29
Cu 2.530370E+00 1.017764E+01 1.862402E+01 9.675800E-02 2.802400E-02 4.173700E-02 29
Cu 5.116280E+00 1.020898E+01 1.857524E+01 3.746500E-02 -3.282800E-02 1.494800E-01 29
Cu 7.655860E+00 3.540000E-03 1.861158E+01 -2.002100E-02 -2.303900E-02 -3.051000E-03 29
Cu 1.018820E+01 2.556960E+00 1.858329E+01 2.583000E-03 1.411100E-02 8.175600E-02 29
Cu 2.530370E+00 2.585630E+00 1.862402E+01 -2.768900E-02 -3.588500E-02 -1.674900E-02 29
Cu 5.116280E+00 2.554300E+00 1.857524E+01 5.778900E-02 1.143170E-01 5.773900E-02 29
Cu 7.655860E+00 2.549120E+00 1.861158E+01 -2.008600E-02 2.560500E-02 3.028000E-03 29
Cu 2.570000E-03 5.105800E+00 1.860328E+01 1.746900E-02 -1.082400E-02 1.323800E-02 29
Cu 2.553530E+00 5.112260E+00 1.859629E+01 3.460000E-04 9.441000E-03 2.694600E-02 29
Cu 5.105460E+00 5.105210E+00 1.860304E+01 7.855000E-03 -5.859000E-03 3.152300E-02 29
Cu 7.660210E+00 5.106180E+00 1.859850E+01 -2.044700E-02 -2.840600E-02 4.258000E-02 29
Cu 2.570000E-03 7.657480E+00 1.860328E+01 1.625200E-02 9.940000E-03 2.013400E-02 29
Cu 2.553530E+00 7.651020E+00 1.859629E+01 -1.111900E-02 -4.625100E-02 6.859000E-03 29
Cu 5.105460E+00 7.658070E+00 1.860304E+01 2.329400E-02 -2.097700E-02 4.831000E-03 29
Cu 7.660210E+00 7.657100E+00 1.859850E+01 -2.100500E-02 2.890500E-02 4.464200E-02 29
C 2.455700E+00 8.136300E-01 2.180702E+01 -1.458726E+00 -6.159890E-01 3.357383E+00 6
O 3.060830E+00 1.114560E+00 2.030239E+01 8.208610E-01 3.702700E-02 -3.524717E+00 8
H 1.617490E+00 1.449590E+00 2.153268E+01 -4.971500E-02 1.343108E+00 -1.363900E-02 1
H 3.595000E+00 1.893920E+00 2.059014E+01 4.075160E-01 -3.955200E-02 -2.880560E-01 1
H 3.391250E+00 3.079200E-01 2.202505E+01 1.170916E+00 6.173930E-01 2.016030E-01 1
H 2.054540E+00 6.417700E-01 2.285493E+01 -9.522670E-01 -1.372408E+00 3.034940E-01 1
54
config_type=slice_sample pbc="T T T" energy=-186.76701343 virial="-22.85030216034133 -0.801629467747297 -0.8137750086498046 -0.801629467747297 -18.86789576249998 -0.03798155452486675 -0.8137750086498046 -0.03798155452486675 0.08245182268257993" Lattice="10.21062192 0.0 0.0 0.0 10.21062192 0.0 0.0 0.0 36.525987" Properties=species:S:1:pos:R:3:force:R:3:Z:I:1
Cu 0.000000E+00 0.000000E+00 1.500000E+01 -1.038600E-02 2.215600E-02 1.837600E-02 29
Cu 2.552660E+00 0.000000E+00 1.500000E+01 2.027500E-02 5.800000E-03 -2.634300E-02 29
Cu 5.105310E+00 0.000000E+00 1.500000E+01 -1.462000E-02 7.179000E-03 -2.709200E-02 29
Cu 7.657970E+00 0.000000E+00 1.500000E+01 5.479000E-03 2.387100E-02 -1.177100E-02 29
Cu 0.000000E+00 2.552660E+00 1.500000E+01 -7.454000E-03 -2.004500E-02 1.412500E-02 29
Cu 2.552660E+00 2.552660E+00 1.500000E+01 1.685200E-02 -3.665000E-03 -2.401900E-02 29
Cu 5.105310E+00 2.552660E+00 1.500000E+01 -1.334700E-02 -8.325000E-03 -1.936100E-02 29
Cu 7.657970E+00 2.552660E+00 1.500000E+01 3.977000E-03 -2.085500E-02 -8.936000E-03 29
Cu 0.000000E+00 5.105310E+00 1.500000E+01 -2.525300E-02 2.683500E-02 -3.011000E-03 29
Cu 2.552660E+00 5.105310E+00 1.500000E+01 2.314800E-02 4.297000E-03 5.222000E-03 29
Cu 5.105310E+00 5.105310E+00 1.500000E+01 -2.272900E-02 2.085000E-03 3.930000E-03 29
Cu 7.657970E+00 5.105310E+00 1.500000E+01 2.427300E-02 1.407100E-02 7.473000E-03 29
Cu 0.000000E+00 7.657970E+00 1.500000E+01 -2.141600E-02 -2.744100E-02 -2.700000E-04 29
Cu 2.552660E+00 7.657970E+00 1.500000E+01 1.953400E-02 -5.499000E-03 3.775000E-03 29
Cu 5.105310E+00 7.657970E+00 1.500000E+01 -2.086500E-02 -1.193000E-03 -9.940000E-04 29
Cu 7.657970E+00 7.657970E+00 1.500000E+01 2.383300E-02 -1.566200E-02 1.319700E-02 29
Cu 1.276330E+00 1.276330E+00 1.680500E+01 1.019280E-01 -8.840000E-04 5.279400E-02 29
Cu 3.828980E+00 1.276330E+00 1.680500E+01 -1.455310E-01 2.468200E-02 -5.791920E-01 29
Cu 6.381640E+00 1.276330E+00 1.680500E+01 4.756600E-02 -1.098500E-02 -1.459610E-01 29
Cu 8.934290E+00 1.276330E+00 1.680500E+01 -5.653500E-02 3.873000E-03 -1.176850E-01 29
Cu 1.276330E+00 3.828980E+00 1.680500E+01 5.799600E-02 -5.074100E-02 2.281000E-03 29
Cu 3.828980E+00 3.828980E+00 1.680500E+01 -2.960800E-02 -2.194800E-02 -6.122200E-02 29
Cu 6.381640E+00 3.828980E+00 1.680500E+01 -4.067100E-02 -4.991300E-02 1.720000E-03 29
Cu 8.934290E+00 3.828980E+00 1.680500E+01 -3.119300E-02 4.061900E-02 -2.866700E-02 29
Cu 1.276330E+00 6.381640E+00 1.680500E+01 -3.852500E-02 -1.721000E-03 -2.374100E-02 29
Cu 3.828980E+00 6.381640E+00 1.680500E+01 2.460600E-02 9.018000E-03 -7.968700E-02 29
Cu 6.381640E+00 6.381640E+00 1.680500E+01 3.853500E-02 -3.040000E-03 -7.306000E-03 29
Cu 8.934290E+00 6.381640E+00 1.680500E+01 -1.043800E-02 2.320000E-03 -3.919300E-02 29
Cu 1.276330E+00 8.934290E+00 1.680500E+01 6.661400E-02 5.705700E-02 7.132000E-03 29
Cu 3.828980E+00 8.934290E+00 1.680500E+01 -2.181200E-02 -4.765000E-03 -8.765500E-02 29
Cu 6.381640E+00 8.934290E+00 1.680500E+01 -6.561600E-02 7.718800E-02 3.228800E-02 29
Cu 8.934290E+00 8.934290E+00 1.680500E+01 -2.606400E-02 -4.774900E-02 -2.793100E-02 29
Cu 1.018820E+01 1.020632E+01 1.858329E+01 9.237400E-02 1.325200E-02 1.013380E-01 29
Cu 2.530370E+00 1.017764E+01 1.862402E+01 -2.133670E-01 -1.176890E-01 2.839500E-02 29
Cu 5.116280E+00 1.020898E+01 1.857524E+01 2.907880E-01 -6.614260E-01 -9.148000E-02 29
Cu 7.655860E+00 3.540000E-03 1.861158E+01 3.100200E-02 -4.866800E-02 -4.987200E-02 29
Cu 1.018820E+01 2.556960E+00 1.858329E+01 7.865900E-02 -9.982000E-03 1.016100E-01 29
Cu 2.530370E+00 2.585630E+00 1.862402E+01 -3.507100E-02 -3.240100E-02 1.039120E-01 29
Cu 5.116280E+00 2.554300E+00 1.857524E+01 1.890770E-01 5.853250E-01 -1.863450E-01 29
Cu 7.655860E+00 2.549120E+00 1.861158E+01 -1.150900E-02 4.401200E-02 -2.092000E-03 29
Cu 2.570000E-03 5.105800E+00 1.860328E+01 1.837300E-02 -1.406200E-02 3.538900E-02 29
Cu 2.553530E+00 5.112260E+00 1.859629E+01 -1.642100E-02 2.286900E-02 4.385700E-02 29
Cu 5.105460E+00 5.105210E+00 1.860304E+01 2.174300E-02 -6.300000E-03 1.097400E-02 29
Cu 7.660210E+00 5.106180E+00 1.859850E+01 -2.344200E-02 -2.430200E-02 5.312900E-02 29
Cu 2.570000E-03 7.657480E+00 1.860328E+01 1.365100E-02 1.203800E-02 3.526600E-02 29
Cu 2.553530E+00 7.651020E+00 1.859629E+01 -2.863200E-02 -5.068400E-02 2.521100E-02 29
Cu 5.105460E+00 7.658070E+00 1.860304E+01 3.819000E-02 -5.297000E-02 -3.724200E-02 29
Cu 7.660210E+00 7.657100E+00 1.859850E+01 -2.772600E-02 3.025200E-02 5.067000E-02 29
C 8.742200E-01 2.582300E-01 2.421201E+01 -2.373180E-01 1.884860E-01 -2.247780E-01 6
O 3.969400E+00 1.129650E+00 1.978714E+01 2.307584E+00 1.174732E+00 1.168834E+00 8
H 1.227030E+00 9.521800E+00 2.456389E+01 2.124130E-01 -5.419900E-01 2.048700E-01 1
H 4.964080E+00 1.460110E+00 2.016182E+01 -2.592510E+00 -8.837200E-01 -2.246550E-01 1
H 1.276650E+00 1.170830E+00 2.461521E+01 1.628390E-01 3.397040E-01 1.543120E-01 1
H 1.061000E-01 2.993700E-01 2.345161E+01 -1.432490E-01 6.905000E-03 -1.435780E-01 1
54
config_type=slice_sample pbc="T T T" energy=-187.61319798 virial="-4.4048382930669145 0.1747436726325534 0.1643807453654433 0.1747436726325534 -7.7869554912336465 0.042711422704121114 0.1643807453654433 0.042711422704121114 13.997533860594492" Lattice="10.21062192 0.0 0.0 0.0 10.21062192 0.0 0.0 0.0 36.525987" Properties=species:S:1:pos:R:3:force:R:3:Z:I:1
Cu 0.000000E+00 0.000000E+00 1.500000E+01 1.174000E-03 -1.159800E-02 2.710100E-02 29
Cu 2.552660E+00 0.000000E+00 1.500000E+01 -1.849800E-02 1.700000E-04 -3.764000E-02 29
Cu 5.105310E+00 0.000000E+00 1.500000E+01 3.230300E-02 -4.649000E-03 3.562000E-02 29
Cu 7.657970E+00 0.000000E+00 1.500000E+01 -1.970300E-02 1.290000E-03 -4.056700E-02 29
Cu 0.000000E+00 2.552660E+00 1.500000E+01 -2.538000E-03 1.665600E-02 -3.205000E-03 29
Cu 2.552660E+00 2.552660E+00 1.500000E+01 -8.707000E-03 -1.027100E-02 -3.187000E-03 29
Cu 5.105310E+00 2.552660E+00 1.500000E+01 2.506800E-02 1.790800E-02 -2.792000E-03 29
Cu 7.657970E+00 2.552660E+00 1.500000E+01 -9.844000E-03 2.414000E-03 -4.301300E-02 29
Cu 0.000000E+00 5.105310E+00 1.500000E+01 -6.644000E-03 -5.070000E-04 -1.432700E-02 29
Cu 2.552660E+00 5.105310E+00 1.500000E+01 -6.331000E-03 1.502100E-02 -7.517000E-03 29
Cu 5.105310E+00 5.105310E+00 1.500000E+01 2.189700E-02 -4.897000E-03 -2.016000E-03 29
Cu 7.657970E+00 5.105310E+00 1.500000E+01 -1.098900E-02 -1.528700E-02 3.873000E-03 29
Cu 0.000000E+00 7.657970E+00 1.500000E+01 -7.344000E-03 -4.394000E-03 -2.184300E-02 29
Cu 2.552660E+00 7.657970E+00 1.500000E+01 -5.150000E-03 -6.918000E-03 1.180200E-02 29
Cu 5.105310E+00 7.657970E+00 1.500000E+01 1.921000E-02 -5.120000E-03 -3.101200E-02 29
Cu 7.657970E+00 7.657970E+00 1.500000E+01 -1.326000E-03 9.315000E-03 -1.189800E-02 29
Cu 1.276330E+00 1.276330E+00 1.680500E+01 2.440880E-01 1.680540E-01 -6.203200E-02 29
Cu 3.828980E+00 1.276330E+00 1.680500E+01 -7.730700E-02 2.643820E-01 -3.187250E-01 29
Cu 6.381640E+00 1.276330E+00 1.680500E+01 3.967010E-01 -1.613080E-01 -7.187810E-01 29
Cu 8.934290E+00 1.276330E+00 1.680500E+01 -8.586190E-01 -4.132860E-01 -1.903094E+00 29
Cu 1.276330E+00 3.828980E+00 1.680500E+01 -3.779760E-01 -1.037630E-01 -3.174150E-01 29
Cu 3.828980E+00 3.828980E+00 1.680500E+01 5.464930E-01 4.940500E-02 -5.651760E-01 29
Cu 6.381640E+00 3.828980E+00 1.680500E+01 2.113120E-01 1.826420E-01 -6.946550E-01 29
Cu 8.934290E+00 3.828980E+00 1.680500E+01 -3.570440E-01 4.745560E-01 -9.999320E-01 29
Cu 1.276330E+00 6.381640E+00 1.680500E+01 -7.013200E-02 2.085100E-02 -5.206920E-01 29
Cu 3.828980E+00 6.381640E+00 1.680500E+01 1.010720E-01 -4.830600E-02 -6.622050E-01 29
Cu 6.381640E+00 6.381640E+00 1.680500E+01 -1.254490E-01 -1.368510E-01 -8.426580E-01 29
Cu 8.934290E+00 6.381640E+00 1.680500E+01 1.379370E-01 -6.040400E-02 -7.196660E-01 29
Cu 1.276330E+00 8.934290E+00 1.680500E+01 1.433700E-01 -5.814400E-02 -3.437760E-01 29
Cu 3.828980E+00 8.934290E+00 1.680500E+01 3.650000E-03 -1.600560E-01 -6.868450E-01 29
Cu 6.381640E+00 8.934290E+00 1.680500E+01 1.800910E-01 1.236080E-01 -4.036320E-01 29
Cu 8.934290E+00 8.934290E+00 1.680500E+01 -3.132830E-01 -2.906250E-01 -7.114490E-01 29
Cu 1.013970E+01 1.019724E+01 1.834379E+01 1.171068E+00 -1.334940E-01 1.473555E+00 29
Cu 2.697430E+00 1.013856E+01 1.859320E+01 -7.354630E-01 5.551280E-01 -1.781090E-01 29
Cu 5.104580E+00 7.200000E-03 1.838985E+01 5.350380E-01 -3.112300E-02 1.126421E+00 29
Cu 7.807830E+00 8.555000E-02 1.861108E+01 -9.580070E-01 -5.015550E-01 1.028400E-01 29
Cu 9.811430E+00 2.497450E+00 1.841068E+01 2.846768E+00 4.605190E-01 1.879743E+00 29
Cu 2.609650E+00 2.678790E+00 1.845444E+01 -1.772020E-01 -8.639680E-01 6.991070E-01 29
Cu 5.379100E+00 2.574150E+00 1.851074E+01 -2.258449E+00 1.597000E-02 6.916300E-01 29
Cu 7.597410E+00 2.502170E+00 1.863981E+01 2.775200E-02 4.353500E-01 1.506280E-01 29
Cu 3.760000E-03 5.145380E+00 1.854050E+01 6.332600E-02 -4.623870E-01 2.267310E-01 29
Cu 2.585160E+00 5.103370E+00 1.843522E+01 -1.046900E-01 3.089180E-01 8.035660E-01 29
Cu 5.165050E+00 5.160250E+00 1.855196E+01 -2.215470E-01 -4.656000E-01 2.449080E-01 29
Cu 7.677680E+00 5.125550E+00 1.845104E+01 1.095300E-02 -3.288020E-01 7.904530E-01 29
Cu 1.016162E+01 7.589770E+00 1.852813E+01 1.801420E-01 4.634810E-01 3.276400E-01 29
Cu 2.564060E+00 7.652430E+00 1.846023E+01 -1.743240E-01 -1.450770E-01 6.251580E-01 29
Cu 5.110990E+00 7.593220E+00 1.849459E+01 -8.169300E-02 5.301410E-01 5.045950E-01 29
Cu 7.617940E+00 7.616760E+00 1.843424E+01 1.979720E-01 4.176220E-01 8.754280E-01 29
C 1.993960E+00 9.515890E+00 2.235508E+01 9.810550E-01 -1.849280E-01 -3.049570E-01 6
O 2.790140E+00 8.963540E+00 2.124521E+01 -5.518250E-01 4.134660E-01 7.367310E-01 8
H 1.442830E+00 8.719310E+00 2.287605E+01 -1.365130E-01 -1.932800E-02 -1.314750E-01 1
H 2.287040E+00 9.118510E+00 2.041301E+01 -2.200410E-01 -1.888180E-01 -6.109100E-02 1
H 2.753470E+00 9.918400E+00 2.304102E+01 -1.811410E-01 8.113300E-02 1.373600E-01 1
H 1.322680E+00 1.251200E-01 2.205041E+01 4.045400E-02 -1.752840E-01 -1.084550E-01 1
54
config_type=slice_sample pbc="T T T" energy=-187.46369398 virial="-13.24051727009574 1.3252425129180194 2.329994862373396 1.3252425129180194 -12.718591765833194 1.1107822084888126 2.329994862373396 1.1107822084888126 10.043078844556176" Lattice="10.21062192 0.0 0.0 0.0 10.21062192 0.0 0.0 0.0 36.525987" Properties=species:S:1:pos:R:3:force:R:3:Z:I:1
Cu 0.000000E+00 0.000000E+00 1.500000E+01 -5.134000E-03 3.103000E-03 -1.633100E-02 29
Cu 2.552660E+00 0.000000E+00 1.500000E+01 5.942000E-03 9.273000E-03 6.135000E-03 29
Cu 5.105310E+00 0.000000E+00 1.500000E+01 -8.360000E-03 -9.340000E-04 -5.222000E-03 29
Cu 7.657970E+00 0.000000E+00 1.500000E+01 5.806000E-03 3.219000E-03 1.758900E-02 29
Cu 0.000000E+00 2.552660E+00 1.500000E+01 -7.749000E-03 -3.951000E-03 -5.378000E-03 29
Cu 2.552660E+00 2.552660E+00 1.500000E+01 -9.350000E-04 -1.220600E-02 -4.026000E-03 29
Cu 5.105310E+00 2.552660E+00 1.500000E+01 1.286000E-02 1.335100E-02 -2.442300E-02 29
Cu 7.657970E+00 2.552660E+00 1.500000E+01 7.000000E-05 -4.596000E-03 2.631200E-02 29
Cu 0.000000E+00 5.105310E+00 1.500000E+01 -7.035000E-03 3.757000E-03 -3.441000E-03 29
Cu 2.552660E+00 5.105310E+00 1.500000E+01 1.331000E-03 9.717000E-03 2.557400E-02 29
Cu 5.105310E+00 5.105310E+00 1.500000E+01 -6.904000E-03 1.231000E-03 3.339300E-02 29
Cu 7.657970E+00 5.105310E+00 1.500000E+01 1.440500E-02 1.288800E-02 -3.532600E-02 29
Cu 0.000000E+00 7.657970E+00 1.500000E+01 -6.600000E-05 -4.861000E-03 3.777500E-02 29
Cu 2.552660E+00 7.657970E+00 1.500000E+01 6.241000E-03 -8.846000E-03 -1.728400E-02 29
Cu 5.105310E+00 7.657970E+00 1.500000E+01 -8.570000E-03 -9.512000E-03 -1.372800E-02 29
Cu 7.657970E+00 7.657970E+00 1.500000E+01 1.803000E-03 -1.161500E-02 7.353000E-03 29
Cu 1.276330E+00 1.276330E+00 1.680500E+01 1.610900E-02 -4.501000E-03 -5.626600E-02 29
Cu 3.828980E+00 1.276330E+00 1.680500E+01 -3.931000E-02 3.173500E-02 -2.579330E-01 29
Cu 6.381640E+00 1.276330E+00 1.680500E+01 5.843200E-02 5.271000E-03 -6.898100E-02 29
Cu 8.934290E+00 1.276330E+00 1.680500E+01 -7.496200E-02 -5.587000E-03 -9.501400E-02 29
Cu 1.276330E+00 3.828980E+00 1.680500E+01 -5.485000E-03 -1.892100E-02 -6.531000E-02 29
Cu 3.828980E+00 3.828980E+00 1.680500E+01 -2.715700E-02 9.766000E-03 -2.343000E-02 29
Cu 6.381640E+00 3.828980E+00 1.680500E+01 7.578100E-02 5.072400E-02 -1.042060E-01 29
Cu 8.934290E+00 3.828980E+00 1.680500E+01 -6.822100E-02 9.541000E-03 -5.068500E-02 29
Cu 1.276330E+00 6.381640E+00 1.680500E+01 -1.895200E-02 -2.523300E-02 -5.616200E-02 29
Cu 3.828980E+00 6.381640E+00 1.680500E+01 1.395500E-02 -1.729700E-02 -6.644900E-02 29
Cu 6.381640E+00 6.381640E+00 1.680500E+01 -6.500000E-03 -3.425500E-02 -2.148700E-02 29
Cu 8.934290E+00 6.381640E+00 1.680500E+01 2.371300E-02 2.702200E-02 -3.329500E-02 29
Cu 1.276330E+00 8.934290E+00 1.680500E+01 1.080460E-01 9.767800E-02 4.508500E-02 29
Cu 3.828980E+00 8.934290E+00 1.680500E+01 -4.125700E-02 4.420000E-03 -9.002600E-02 29
Cu 6.381640E+00 8.934290E+00 1.680500E+01 2.100100E-02 -1.441600E-02 -4.320600E-02 29
Cu 8.934290E+00 8.934290E+00 1.680500E+01 -6.383600E-02 -3.416200E-02 -7.070500E-02 29
Cu 1.018820E+01 1.020632E+01 1.858329E+01 -7.469100E-02 -2.561800E-02 -2.808000E-03 29
Cu 2.530370E+00 1.017764E+01 1.862402E+01 -2.237037E+00 -2.712076E+00 -3.269566E+00 29
Cu 5.116280E+00 1.020898E+01 1.857524E+01 8.573490E-01 -4.586400E-01 -2.907180E-01 29
Cu 7.655860E+00 3.540000E-03 1.861158E+01 -1.118900E-02 -1.399100E-02 1.361100E-02 29
Cu 1.018820E+01 2.556960E+00 1.858329E+01 -4.574800E-02 1.720700E-02 3.620000E-04 29
Cu 2.530370E+00 2.585630E+00 1.862402E+01 -7.032460E-01 1.456874E+00 -1.393321E+00 29
Cu 5.116280E+00 2.554300E+00 1.857524E+01 3.613430E-01 4.542220E-01 -1.895290E-01 29
Cu 7.655860E+00 2.549120E+00 1.861158E+01 -6.495000E-03 2.773900E-02 9.665000E-03 29
Cu 2.570000E-03 5.105800E+00 1.860328E+01 -6.519000E-03 6.129000E-03 2.685400E-02 29
Cu 2.553530E+00 5.112260E+00 1.859629E+01 8.695000E-03 3.290200E-02 6.232700E-02 29
Cu 5.105460E+00 5.105210E+00 1.860304E+01 5.275000E-03 6.375000E-03 4.232100E-02 29
Cu 7.660210E+00 5.106180E+00 1.859850E+01 -7.418000E-03 -2.663200E-02 4.530800E-02 29
Cu 2.570000E-03 7.657480E+00 1.860328E+01 1.845800E-02 1.248300E-02 2.773100E-02 29
Cu 2.553530E+00 7.651020E+00 1.859629E+01 -3.222600E-02 -1.268510E-01 -2.624800E-02 29
Cu 5.105460E+00 7.658070E+00 1.860304E+01 2.594500E-02 -4.991700E-02 -1.056100E-02 29
Cu 7.660210E+00 7.657100E+00 1.859850E+01 -1.163300E-02 1.526100E-02 4.829000E-02 29
C 2.459880E+00 1.401260E+00 2.091614E+01 -6.180250E-01 4.134740E-01 -3.697690E-01 6
O 3.319320E+00 7.930000E-01 1.996327E+01 1.276899E+00 -6.523470E-01 4.104078E+00 8
H 1.515080E+00 9.002700E-01 2.090044E+01 -9.514280E-01 -3.045420E-01 -9.719400E-02 1
H 3.708940E+00 1.420490E+00 1.926431E+01 1.207092E+00 1.231566E+00 1.492990E-01 1
H 2.829830E+00 1.356090E+00 2.188333E+01 1.284034E+00 -2.291930E-01 2.143215E+00 1
H 2.345230E+00 2.448610E+00 2.066171E+01 -3.144960E-01 8.437720E-01 5.750000E-03 1
54